REMARK SMILES C#Cc1cccc(Nc2ncnc3cc(OCCOC)c(OCCOC)cc23)c1
REMARK SMILES IDX 12 1 10 2 28 3 13 4 21 5 15 6 27 7 9 8 14 9 11 10 22 11
REMARK SMILES IDX 23 12 24 13 25 14 26 15 16 16 17 17 18 18 19 19 20 20 8 21
REMARK SMILES IDX 7 23 29 24 6 25 3 26 5 27 4 28 2 29 1 30
REMARK H PARENT 8 22
ROOT
ATOM      1  N   UNL     1       0.326   3.223  -0.063  1.00  0.00    -0.236 NA
ATOM      2  N   UNL     1       2.422   2.120  -0.508  1.00  0.00    -0.219 NA
ATOM      3  C   UNL     1       0.344   0.889  -0.615  1.00  0.00     0.047 A 
ATOM      4  C   UNL     1      -0.334   2.071  -0.276  1.00  0.00     0.080 A 
ATOM      5  C   UNL     1      -1.743  -0.336  -0.721  1.00  0.00     0.162 A 
ATOM      6  C   UNL     1      -2.426   0.828  -0.386  1.00  0.00     0.163 A 
ATOM      7  C   UNL     1      -0.357  -0.309  -0.836  1.00  0.00     0.064 A 
ATOM      8  C   UNL     1       1.730   0.984  -0.715  1.00  0.00     0.141 A 
ATOM      9  C   UNL     1      -1.722   2.016  -0.167  1.00  0.00     0.079 A 
ATOM     10  C   UNL     1       1.668   3.185  -0.190  1.00  0.00     0.224 A 
ENDROOT
BRANCH   5  11
ATOM     11  O   UNL     1      -2.416  -1.499  -0.937  1.00  0.00    -0.487 OA
BRANCH  11  12
ATOM     12  C   UNL     1      -2.093  -2.603  -0.093  1.00  0.00     0.258 C 
BRANCH  12  13
ATOM     13  C   UNL     1      -3.326  -3.467   0.085  1.00  0.00     0.201 C 
BRANCH  13  14
ATOM     14  O   UNL     1      -4.351  -2.693   0.698  1.00  0.00    -0.381 OA
ATOM     15  C   UNL     1      -5.542  -3.449   0.870  1.00  0.00     0.195 C 
ENDBRANCH  13  14
ENDBRANCH  12  13
ENDBRANCH  11  12
ENDBRANCH   5  11
BRANCH   6  16
ATOM     16  O   UNL     1      -3.783   0.825  -0.267  1.00  0.00    -0.487 OA
BRANCH  16  17
ATOM     17  C   UNL     1      -4.355   1.749   0.656  1.00  0.00     0.258 C 
BRANCH  17  18
ATOM     18  C   UNL     1      -5.654   1.176   1.190  1.00  0.00     0.201 C 
BRANCH  18  19
ATOM     19  O   UNL     1      -6.554   0.980   0.107  1.00  0.00    -0.381 OA
ATOM     20  C   UNL     1      -7.785   0.422   0.548  1.00  0.00     0.195 C 
ENDBRANCH  18  19
ENDBRANCH  17  18
ENDBRANCH  16  17
ENDBRANCH   6  16
BRANCH   8  21
ATOM     21  N   UNL     1       2.483  -0.168  -1.054  1.00  0.00    -0.340 N 
ATOM     22  H   UNL     1       2.080  -0.688  -1.829  1.00  0.00     0.168 HD
BRANCH  21  23
ATOM     23  C   UNL     1       3.786  -0.576  -0.730  1.00  0.00     0.041 A 
ATOM     24  C   UNL     1       4.359  -0.186   0.481  1.00  0.00     0.043 A 
ATOM     25  C   UNL     1       4.508  -1.372  -1.619  1.00  0.00     0.026 A 
ATOM     26  C   UNL     1       5.654  -0.592   0.802  1.00  0.00     0.026 A 
ATOM     27  C   UNL     1       5.803  -1.778  -1.298  1.00  0.00     0.003 A 
ATOM     28  C   UNL     1       6.377  -1.388  -0.088  1.00  0.00     0.017 A 
ATOM     29  C   UNL     1       6.242  -0.193   2.041  1.00  0.00    -0.070 C 
ATOM     30  C   UNL     1       6.736   0.142   3.083  1.00  0.00     0.010 C 
ENDBRANCH  21  23
ENDBRANCH   8  21
TORSDOF 10
