REMARK SMILES COc1cc2ncnc(Nc3ccc(F)c(Cl)c3)c2cc1OCCCN1CCOCC1
REMARK SMILES IDX 22 1 21 2 9 3 8 4 19 5 7 6 20 7 5 8 6 9 4 10 3 11 10 12
REMARK SMILES IDX 11 14 16 15 18 16 14 17 13 18 12 19 17 20 15 21 2 22 1 23
REMARK SMILES IDX 23 24 24 25 25 26 26 27 27 28 31 29 28 30 30 31 29 32
REMARK H PARENT 10 13
ROOT
ATOM      1  O   UNL     1       3.419   0.984   0.762  1.00  0.00    -0.490 OA
ENDROOT
BRANCH   1   2
ATOM      2  C   UNL     1       2.964  -0.251   0.380  1.00  0.00     0.162 A 
ATOM      3  C   UNL     1      -0.210  -2.152   0.134  1.00  0.00     0.141 A 
ATOM      4  N   UNL     1      -0.687  -3.356  -0.235  1.00  0.00    -0.219 NA
ATOM      5  C   UNL     1       1.135  -1.798   0.075  1.00  0.00     0.047 A 
ATOM      6  C   UNL     1       0.245  -4.216  -0.675  1.00  0.00     0.224 A 
ATOM      7  C   UNL     1       1.609  -0.533   0.466  1.00  0.00     0.064 A 
ATOM      8  C   UNL     1       2.014  -2.783  -0.403  1.00  0.00     0.080 A 
ATOM      9  N   UNL     1       1.571  -3.995  -0.780  1.00  0.00    -0.236 NA
ATOM     10  C   UNL     1       3.368  -2.465  -0.476  1.00  0.00     0.079 A 
ATOM     11  C   UNL     1       3.847  -1.210  -0.089  1.00  0.00     0.162 A 
BRANCH   3  12
ATOM     12  N   UNL     1      -1.158  -1.209   0.606  1.00  0.00    -0.340 N 
ATOM     13  H   UNL     1      -0.852  -0.730   1.448  1.00  0.00     0.168 HD
BRANCH  12  14
ATOM     14  C   UNL     1      -2.515  -1.003   0.314  1.00  0.00     0.041 A 
ATOM     15  C   UNL     1      -4.721  -0.272   0.994  1.00  0.00     0.078 A 
ATOM     16  C   UNL     1      -3.373  -0.476   1.284  1.00  0.00     0.049 A 
ATOM     17  C   UNL     1      -5.220  -0.594  -0.269  1.00  0.00     0.141 A 
ATOM     18  C   UNL     1      -4.369  -1.120  -1.241  1.00  0.00     0.043 A 
ATOM     19  C   UNL     1      -3.019  -1.325  -0.950  1.00  0.00     0.029 A 
ATOM     20  Cl  UNL     1      -5.767   0.379   2.197  1.00  0.00    -0.081 Cl
ATOM     21  F   UNL     1      -6.513  -0.403  -0.564  1.00  0.00    -0.205 F 
ENDBRANCH  12  14
ENDBRANCH   3  12
BRANCH  11  22
ATOM     22  O   UNL     1       5.181  -0.947  -0.179  1.00  0.00    -0.493 OA
ATOM     23  C   UNL     1       5.980  -1.250   0.962  1.00  0.00     0.278 C 
ENDBRANCH  11  22
ENDBRANCH   1   2
BRANCH   1  24
ATOM     24  C   UNL     1       3.468   1.988  -0.243  1.00  0.00     0.231 C 
BRANCH  24  25
ATOM     25  C   UNL     1       3.234   3.345   0.406  1.00  0.00     0.057 C 
BRANCH  25  26
ATOM     26  C   UNL     1       1.869   3.414   1.083  1.00  0.00     0.088 C 
BRANCH  26  27
ATOM     27  N   UNL     1       0.806   3.171   0.109  1.00  0.00    -0.299 NA
ATOM     28  C   UNL     1      -0.508   3.143   0.766  1.00  0.00     0.113 C 
ATOM     29  C   UNL     1       0.821   4.194  -0.945  1.00  0.00     0.113 C 
ATOM     30  C   UNL     1      -1.600   2.900  -0.271  1.00  0.00     0.175 C 
ATOM     31  C   UNL     1      -0.303   3.927  -1.942  1.00  0.00     0.175 C 
ATOM     32  O   UNL     1      -1.567   3.914  -1.276  1.00  0.00    -0.379 OA
ENDBRANCH  26  27
ENDBRANCH  25  26
ENDBRANCH  24  25
ENDBRANCH   1  24
TORSDOF 8
